<?xml version="1.0"?>
<VTKFile type="UnstructuredGrid" version="0.1" byte_order="LittleEndian">
<UnstructuredGrid>
<Piece NumberOfPoints="510" NumberOfVerts="0" NumberOfLines="0" NumberOfStrips="0" NumberOfCells="450">
<Points>
<DataArray type="Float32" NumberOfComponents="3" format="ascii">
1 0 0
0.966667 0.555556 0
0.933333 1.11111 0
0.9 1.66667 0
0.866667 2.22222 0
0.833333 2.77778 0
0.8 3.33333 0
0.766667 3.88889 0
0.733333 4.44444 0
0.7 5 0
0.996057 0 -0.001258
0.962899 0.555556 -0.001202
0.929741 1.11111 -0.001146
0.896583 1.66667 -0.00109
0.863425 2.22222 -0.001034
0.830267 2.77778 -0.000978
0.797109 3.33333 -0.000922
0.763951 3.88889 -0.000866
0.730793 4.44444 -0.00081
0.697634 5 -0.000755
0.984292 0 -0.001304
0.951656 0.555556 -0.001246
0.919021 1.11111 -0.001188
0.886386 1.66667 -0.00113
0.853751 2.22222 -0.001072
0.821116 2.77778 -0.001014
0.78848 3.33333 -0.000956
0.755845 3.88889 -0.000898
0.72321 4.44444 -0.00084
0.690575 5 -0.000782
0.964888 0 -0.001455
0.933115 0.555556 -0.00139
0.901343 1.11111 -0.001326
0.86957 1.66667 -0.001261
0.837797 2.22222 -0.001196
0.806024 2.77778 -0.001132
0.774251 3.33333 -0.001067
0.742479 3.88889 -0.001002
0.710706 4.44444 -0.000938
0.678933 5 -0.000873
0.938153 0 -0.001728
0.907569 0.555556 -0.001651
0.876984 1.11111 -0.001574
0.8464 1.66667 -0.001498
0.815815 2.22222 -0.001421
0.78523 2.77778 -0.001344
0.754646 3.33333 -0.001267
0.724061 3.88889 -0.00119
0.693477 4.44444 -0.001114
0.662892 5 -0.001037
0.904508 0 -0.00214
0.875419 0.555556 -0.002045
0.84633 1.11111 -0.00195
0.817241 1.66667 -0.001855
0.788151 2.22222 -0.00176
0.759062 2.77778 -0.001664
0.729973 3.33333 -0.001569
0.700884 3.88889 -0.001474
0.671794 4.44444 -0.001379
0.642705 5 -0.001284
0.864484 0 -0.002715
0.837174 0.555556 -0.002594
0.809863 1.11111 -0.002474
0.782553 1.66667 -0.002353
0.755243 2.22222 -0.002232
0.727932 2.77778 -0.002112
0.700622 3.33333 -0.001991
0.673311 3.88889 -0.00187
0.646001 4.44444 -0.00175
0.618691 5 -0.001629
0.818712 0 -0.003519
0.793436 0.555556 -0.003362
0.76816 1.11111 -0.003206
0.742884 1.66667 -0.003049
0.717608 2.22222 -0.002893
0.692332 2.77778 -0.002737
0.667055 3.33333 -0.00258
0.641779 3.88889 -0.002424
0.616503 4.44444 -0.002268
0.591227 5 -0.002111
0.767913 0 -0.004631
0.744895 0.555556 -0.004425
0.721877 1.11111 -0.004219
0.698858 1.66667 -0.004013
0.67584 2.22222 -0.003808
0.652822 2.77778 -0.003602
0.629803 3.33333 -0.003396
0.606785 3.88889 -0.00319
0.583766 4.44444 -0.002984
0.560748 5 -0.002779
0.71289 0 -0.006111
0.692317 0.555556 -0.00584
0.671744 1.11111 -0.005568
0.651171 1.66667 -0.005296
0.630598 2.22222 -0.005025
0.610025 2.77778 -0.004753
0.589452 3.33333 -0.004482
0.56888 3.88889 -0.00421
0.548307 4.44444 -0.003938
0.527734 5 -0.003667
0.654508 0 -0.007995
0.63653 0.555556 -0.00764
0.618552 1.11111 -0.007285
0.600574 1.66667 -0.006929
0.582596 2.22222 -0.006574
0.564618 2.77778 -0.006219
0.54664 3.33333 -0.005863
0.528661 3.88889 -0.005508
0.510683 4.44444 -0.005152
0.492705 5 -0.004797
0.593691 0 -0.010245
0.578416 0.555556 -0.00979
0.56314 1.11111 -0.009334
0.547865 1.66667 -0.008879
0.53259 2.22222 -0.008424
0.517315 2.77778 -0.007968
0.50204 3.33333 -0.007513
0.486765 3.88889 -0.007058
0.47149 4.44444 -0.006602
0.456214 5 -0.006147
0.531395 0 -0.01274
0.518889 0.555556 -0.012174
0.506382 1.11111 -0.011607
0.493876 1.66667 -0.011041
0.481369 2.22222 -0.010475
0.468863 2.77778 -0.009909
0.456357 3.33333 -0.009343
0.44385 3.88889 -0.008776
0.431344 4.44444 -0.00821
0.418837 5 -0.007644
0.468605 0 -0.015233
0.458889 0.555556 -0.014556
0.449173 1.11111 -0.013879
0.439457 1.66667 -0.013202
0.429742 2.22222 -0.012525
0.420026 2.77778 -0.011848
0.41031 3.33333 -0.011171
0.400594 3.88889 -0.010494
0.390879 4.44444 -0.009817
0.381163 5 -0.00914
0.406309 0 -0.017733
0.399362 0.555556 -0.016945
0.392415 1.11111 -0.016157
0.385468 1.66667 -0.015368
0.378521 2.22222 -0.01458
0.371574 2.77778 -0.013792
0.364627 3.33333 -0.013004
0.35768 3.88889 -0.012216
0.350733 4.44444 -0.011428
0.343786 5 -0.01064
0.345492 0 -0.02045
0.341247 0.555556 -0.019541
0.337003 1.11111 -0.018632
0.332759 1.66667 -0.017723
0.328515 2.22222 -0.016815
0.324271 2.77778 -0.015906
0.320027 3.33333 -0.014997
0.315783 3.88889 -0.014088
0.311539 4.44444 -0.013179
0.307295 5 -0.01227
0.28711 0 -0.02321
0.285461 0.555556 -0.022179
0.283812 1.11111 -0.021147
0.282162 1.66667 -0.020116
0.280513 2.22222 -0.019084
0.278864 2.77778 -0.018052
0.277214 3.33333 -0.017021
0.275565 3.88889 -0.015989
0.273916 4.44444 -0.014958
0.272266 5 -0.013926
0.232087 0 -0.0259
0.232883 0.555556 -0.024748
0.233679 1.11111 -0.023597
0.234475 1.66667 -0.022446
0.235271 2.22222 -0.021295
0.236067 2.77778 -0.020144
0.236864 3.33333 -0.018993
0.23766 3.88889 -0.017842
0.238456 4.44444 -0.016691
0.239252 5 -0.01554
0.181288 0 -0.028078
0.184342 0.555556 -0.02683
0.187396 1.11111 -0.025582
0.19045 1.66667 -0.024334
0.193503 2.22222 -0.023086
0.196557 2.77778 -0.021838
0.199611 3.33333 -0.02059
0.202665 3.88889 -0.019342
0.205719 4.44444 -0.018095
0.208773 5 -0.016847
0.135516 0 -0.02895
0.140604 0.555556 -0.027664
0.145692 1.11111 -0.026377
0.15078 1.66667 -0.02509
0.155868 2.22222 -0.023804
0.160957 2.77778 -0.022517
0.166045 3.33333 -0.02123
0.171133 3.88889 -0.019944
0.176221 4.44444 -0.018657
0.181309 5 -0.01737
0.095492 0 -0.028454
0.102359 0.555556 -0.02719
0.109226 1.11111 -0.025925
0.116093 1.66667 -0.02466
0.12296 2.22222 -0.023396
0.129827 2.77778 -0.022131
0.136694 3.33333 -0.020867
0.143561 3.88889 -0.019602
0.150428 4.44444 -0.018337
0.157295 5 -0.017073
0.061847 0 -0.026304
0.070209 0.555556 -0.025135
0.078571 1.11111 -0.023966
0.086934 1.66667 -0.022796
0.095296 2.22222 -0.021627
0.103659 2.77778 -0.020458
0.112021 3.33333 -0.019289
0.120383 3.88889 -0.01812
0.128746 4.44444 -0.016951
0.137108 5 -0.015782
0.035112 0 -0.022249
0.044662 0.555556 -0.021261
0.054213 1.11111 -0.020272
0.063764 1.66667 -0.019283
0.073314 2.22222 -0.018294
0.082865 2.77778 -0.017305
0.092415 3.33333 -0.016316
0.101966 3.88889 -0.015327
0.111516 4.44444 -0.014339
0.121067 5 -0.01335
0.015708 0 -0.015844
0.026121 0.555556 -0.015139
0.036534 1.11111 -0.014435
0.046947 1.66667 -0.013731
0.05736 2.22222 -0.013027
0.067773 2.77778 -0.012323
0.078186 3.33333 -0.011619
0.088599 3.88889 -0.010914
0.099012 4.44444 -0.01021
0.109425 5 -0.009506
0.003943 0 -0.008867
0.014879 0.555556 -0.008473
0.025814 1.11111 -0.008079
0.03675 1.66667 -0.007685
0.047686 2.22222 -0.007291
0.058622 2.77778 -0.006897
0.069558 3.33333 -0.006503
0.080494 3.88889 -0.006109
0.09143 4.44444 -0.005715
0.102366 5 -0.00532
0 0 -0
0.011111 0.555556 -0
0.022222 1.11111 -0
0.033333 1.66667 -0
0.044444 2.22222 -0
0.055556 2.77778 -0
0.066667 3.33333 -0
0.077778 3.88889 -0
0.088889 4.44444 -0
0.1 5 -0
0.003943 0 0.013235
0.014879 0.555556 0.012647
0.025814 1.11111 0.012059
0.03675 1.66667 0.01147
0.047686 2.22222 0.010882
0.058622 2.77778 0.010294
0.069558 3.33333 0.009706
0.080494 3.88889 0.009117
0.09143 4.44444 0.008529
0.102366 5 0.007941
0.015708 0 0.027264
0.026121 0.555556 0.026052
0.036534 1.11111 0.02484
0.046947 1.66667 0.023629
0.05736 2.22222 0.022417
0.067773 2.77778 0.021205
0.078186 3.33333 0.019993
0.088599 3.88889 0.018782
0.099012 4.44444 0.01757
0.109425 5 0.016358
0.035112 0 0.039841
0.044662 0.555556 0.038071
0.054213 1.11111 0.0363
0.063764 1.66667 0.034529
0.073314 2.22222 0.032758
0.082865 2.77778 0.030988
0.092415 3.33333 0.029217
0.101966 3.88889 0.027446
0.111516 4.44444 0.025676
0.121067 5 0.023905
0.061847 0 0.052479
0.070209 0.555556 0.050147
0.078571 1.11111 0.047814
0.086934 1.66667 0.045482
0.095296 2.22222 0.043149
0.103659 2.77778 0.040817
0.112021 3.33333 0.038485
0.120383 3.88889 0.036152
0.128746 4.44444 0.03382
0.137108 5 0.031487
0.095492 0 0.064511
0.102359 0.555556 0.061644
0.109226 1.11111 0.058777
0.116093 1.66667 0.055909
0.12296 2.22222 0.053042
0.129827 2.77778 0.050175
0.136694 3.33333 0.047308
0.143561 3.88889 0.044441
0.150428 4.44444 0.041574
0.157295 5 0.038707
0.135516 0 0.075571
0.140604 0.555556 0.072212
0.145692 1.11111 0.068853
0.15078 1.66667 0.065495
0.155868 2.22222 0.062136
0.160957 2.77778 0.058777
0.166045 3.33333 0.055419
0.171133 3.88889 0.05206
0.176221 4.44444 0.048701
0.181309 5 0.045342
0.181288 0 0.084986
0.184342 0.555556 0.081209
0.187396 1.11111 0.077432
0.19045 1.66667 0.073654
0.193503 2.22222 0.069877
0.196557 2.77778 0.0661
0.199611 3.33333 0.062323
0.202665 3.88889 0.058546
0.205719 4.44444 0.054769
0.208773 5 0.050992
0.232087 0 0.092227
0.232883 0.555556 0.088128
0.233679 1.11111 0.084029
0.234475 1.66667 0.07993
0.235271 2.22222 0.075831
0.236067 2.77778 0.071732
0.236864 3.33333 0.067633
0.23766 3.88889 0.063534
0.238456 4.44444 0.059435
0.239252 5 0.055336
0.28711 0 0.096933
0.285461 0.555556 0.092624
0.283812 1.11111 0.088316
0.282162 1.66667 0.084008
0.280513 2.22222 0.0797
0.278864 2.77778 0.075392
0.277214 3.33333 0.071084
0.275565 3.88889 0.066776
0.273916 4.44444 0.062468
0.272266 5 0.05816
0.345492 0 0.098754
0.341247 0.555556 0.094365
0.337003 1.11111 0.089976
0.332759 1.66667 0.085587
0.328515 2.22222 0.081198
0.324271 2.77778 0.076809
0.320027 3.33333 0.072419
0.315783 3.88889 0.06803
0.311539 4.44444 0.063641
0.307295 5 0.059252
0.406309 0 0.09778
0.399362 0.555556 0.093434
0.392415 1.11111 0.089088
0.385468 1.66667 0.084743
0.378521 2.22222 0.080397
0.371574 2.77778 0.076051
0.364627 3.33333 0.071705
0.35768 3.88889 0.067359
0.350733 4.44444 0.063014
0.343786 5 0.058668
0.468605 0 0.094356
0.458889 0.555556 0.090163
0.449173 1.11111 0.085969
0.439457 1.66667 0.081775
0.429742 2.22222 0.077582
0.420026 2.77778 0.073388
0.41031 3.33333 0.069195
0.400594 3.88889 0.065001
0.390879 4.44444 0.060807
0.381163 5 0.056614
0.531395 0 0.089038
0.518889 0.555556 0.085081
0.506382 1.11111 0.081124
0.493876 1.66667 0.077167
0.481369 2.22222 0.073209
0.468863 2.77778 0.069252
0.456357 3.33333 0.065295
0.44385 3.88889 0.061338
0.431344 4.44444 0.05738
0.418837 5 0.053423
[...]
<CellData Scalars="properties">
<DataArray type="Float32" Name="cp" format="ascii">
0.198572 0.197779 0.197372 0.197143 0.196976 0.196811 0.196609 0.196304 0.193011 0.169713 0.169052 0.168713 0.168514 0.168347 0.16814 0.167823 0.167232 0.163096 0.191249 0.190733 0.190477 0.190318 0.190148 0.189882 0.189408 0.188433 0.183225 0.175373 0.174942 0.174755 0.174628 0.174447 0.17411 0.173454 0.172057 0.165673 0.158396 0.158031 0.157917 0.157826 0.157635 0.157221 0.156369 0.154526 0.147096 0.144787 0.144476 0.144438 0.144386 0.144186 0.143692 0.142636 0.140337 0.132083 0.133833 0.133571 0.133613 0.133603 0.133394 0.132817 0.131552 0.12879 0.119978 0.123664 0.123459 0.123584 0.123619 0.123402 0.12274 0.121257 0.118022 0.108911 0.112757 0.112626 0.112838 0.112921 0.112697 0.111947 0.110235 0.106504 0.097314 0.099841 0.099805 0.100109 0.100245 0.100014 0.099169 0.097211 0.092952 0.083825 0.084128 0.084205 0.084611 0.084804 0.084566 0.083618 0.081393 0.076558 0.067544 0.065968 0.066175 0.066691 0.066949 0.066704 0.065643 0.063126 0.057659 0.048702 0.048709 0.049055 0.049695 0.050023 0.049772 0.048592 0.045763 0.039622 0.03058 0.034298 0.034788 0.035564 0.035972 0.035718 0.034413 0.031255 0.024406 0.01502 0.015972 0.016617 0.017553 0.018054 0.017797 0.01635 0.012817 0.005157 -0.005072 -0.011641 -0.010816 -0.00968 -0.009063 -0.009323 -0.010943 -0.014936 -0.023592 -0.035413 -0.051612 -0.050551 -0.049155 -0.048388 -0.04865 -0.050493 -0.055078 -0.06502 -0.079446 -0.10937 -0.107962 -0.106206 -0.105233 -0.105498 -0.107645 -0.113037 -0.124744 -0.143141 -0.174574 -0.172648 -0.170406 -0.169156 -0.16942 -0.171962 -0.178412 -0.192446 -0.216344 -0.241358 -0.238647 -0.235733 -0.234102 -0.234358 -0.237426 -0.24529 -0.262457 -0.293813 -0.317843 -0.313905 -0.309995 -0.307801 -0.308041 -0.311875 -0.321811 -0.343589 -0.385598 -0.396502 -0.390603 -0.385137 -0.382063 -0.382276 -0.38729 -0.40043 -0.429377 -0.487422 -0.370837 -0.362235 -0.354689 -0.350443 -0.350596 -0.357118 -0.374402 -0.412726 -0.491725 -0.262513 -0.249483 -0.238558 -0.232417 -0.232466 -0.241399 -0.265355 -0.319002 -0.432409 0.531055 0.542548 0.551786 0.556948 0.557026 0.549865 0.530322 0.485477 0.386051 0.954073 0.950461 0.94755 0.945882 0.945823 0.948028 0.953783 0.965399 0.984481 0.39904 0.388491 0.380525 0.376064 0.375844 0.381553 0.397044 0.431259 0.502236 -0.09689 -0.108539 -0.11692 -0.121559 -0.121835 -0.116063 -0.100218 -0.064495 0.014213 -0.296778 -0.307517 -0.314851 -0.318858 -0.319124 -0.314248 -0.300752 -0.269814 -0.197329 -0.448016 -0.458297 -0.464953 -0.468535 -0.468787 -0.464502 -0.452557 -0.42472 -0.354759 -0.553919 -0.563922 -0.570058 -0.573305 -0.57354 -0.569708 -0.558958 -0.533467 -0.464201 -0.633576 -0.64343 -0.649175 -0.652158 -0.652377 -0.648895 -0.639067 -0.615342 -0.545428 -0.681506 -0.691218 -0.696618 -0.699367 -0.699569 -0.696393 -0.687377 -0.66521 -0.59452 -0.700667 -0.710212 -0.71529 -0.717824 -0.718011 -0.715116 -0.706851 -0.686161 -0.615226 -0.689225 -0.698533 -0.70328 -0.705603 -0.705778 -0.703161 -0.695641 -0.676487 -0.606586 -0.647905 -0.656883 -0.661277 -0.663388 -0.663553 -0.661217 -0.654459 -0.636965 -0.569798 -0.588903 -0.597496 -0.601533 -0.603439 -0.603598 -0.601536 -0.595523 -0.579732 -0.516742 -0.527249 -0.53545 -0.53915 -0.540873 -0.54103 -0.53922 -0.533897 -0.519742 -0.461831 -0.471315 -0.479132 -0.482524 -0.484085 -0.484244 -0.482661 -0.477961 -0.465333 -0.412999 -0.415172 -0.422553 -0.425643 -0.427054 -0.427217 -0.425849 -0.421739 -0.410605 -0.364395 -0.356227 -0.363084 -0.365868 -0.367134 -0.367301 -0.36614 -0.362599 -0.352952 -0.313268 -0.298555 -0.304813 -0.307297 -0.308427 -0.308599 -0.307631 -0.304627 -0.296411 -0.263244 -0.240731 -0.246315 -0.248504 -0.249504 -0.24968 -0.248893 -0.246395 -0.239548 -0.212659 -0.178737 -0.183574 -0.185469 -0.186342 -0.186522 -0.185904 -0.183885 -0.178347 -0.157357 -0.112498 -0.116556 -0.118164 -0.118915 -0.119095 -0.118634 -0.11706 -0.112742 -0.097071 -0.043677 -0.046975 -0.048315 -0.048952 -0.049131 -0.04881 -0.047637 -0.044417 -0.033331 0.028367 0.025765 0.024669 0.024137 0.023962 0.02416 0.024981 0.02724 0.034518 0.103104 0.1011 0.100218 0.099779 0.099609 0.099704 0.100225 0.101674 0.105918 0.145836 0.144252 0.143523 0.143148 0.142977 0.14299 0.14328 0.144114 0.146072 0.303171 0.30191 0.301307 0.300989 0.300826 0.300785 0.300913 0.301311 0.301882 
</DataArray>
<DataArray type="Float32" Name="panel_area" format="ascii">
0.002248 0.002146 0.002044 0.001942 0.00184 0.001737 0.001635 0.001533 0.001431 0.006391 0.006101 0.00581 0.00552 0.005229 0.004939 0.004648 0.004358 0.004067 0.01054 0.010061 0.009582 0.009103 0.008624 0.008145 0.007666 0.007187 0.006708 0.014523 0.013863 0.013203 0.012543 0.011883 0.011223 0.010562 0.009902 0.009242 0.018278 0.017447 0.016616 0.015785 0.014954 0.014124 0.013293 0.012462 0.011631 0.021744 0.020755 0.019767 0.018779 0.01779 0.016802 0.015814 0.014825 0.013837 0.024868 0.023737 0.022607 0.021477 0.020346 0.019216 0.018086 0.016955 0.015825 0.027601 0.026346 0.025092 0.023837 0.022583 0.021328 0.020073 0.018819 0.017564 0.0299 0.028541 0.027182 0.025823 0.024464 0.023105 0.021746 0.020387 0.019027 0.03173 0.030288 0.028845 0.027403 0.025961 0.024518 0.023076 0.021634 0.020192 0.03306 0.031557 0.030054 0.028551 0.027049 0.025546 0.024043 0.022541 0.021038 0.033867 0.032327 0.030788 0.029248 0.027709 0.02617 0.02463 0.023091 0.021552 0.034135 0.032584 0.031032 0.029481 0.027929 0.026377 0.024826 0.023274 0.021723 0.033867 0.032327 0.030788 0.029249 0.027709 0.02617 0.02463 0.023091 0.021552 0.03307 0.031567 0.030064 0.02856 0.027057 0.025554 0.024051 0.022548 0.021044 0.031749 0.030306 0.028862 0.027419 0.025976 0.024533 0.02309 0.021647 0.020204 0.029925 0.028565 0.027205 0.025844 0.024484 0.023124 0.021764 0.020404 0.019043 0.02762 0.026364 0.025109 0.023853 0.022598 0.021343 0.020087 0.018832 0.017576 0.024869 0.023738 0.022608 0.021477 0.020347 0.019217 0.018086 0.016956 0.015825 0.021743 0.020755 0.019767 0.018778 0.01779 0.016802 0.015813 0.014825 0.013837 0.018314 0.017481 0.016649 0.015816 0.014984 0.014151 0.013319 0.012487 0.011654 0.014689 0.014021 0.013353 0.012686 0.012018 0.01135 0.010683 0.010015 0.009347 0.0111 0.010595 0.010091 0.009586 0.009082 0.008577 0.008073 0.007568 0.007064 0.007431 0.007093 0.006755 0.006417 0.00608 0.005742 0.005404 0.005066 0.004729 0.005272 0.005033 0.004793 0.004553 0.004314 0.004074 0.003835 0.003595 0.003355 0.007503 0.007162 0.006821 0.00648 0.006139 0.005798 0.005457 0.005116 0.004775 0.009947 0.009495 0.009043 0.008591 0.008139 0.007686 0.007234 0.006782 0.00633 0.012562 0.011991 0.01142 0.010849 0.010278 0.009707 0.009136 0.008565 0.007994 0.016064 0.015334 0.014604 0.013874 0.013144 0.012413 0.011683 0.010953 0.010223 0.019411 0.018528 0.017646 0.016764 0.015881 0.014999 0.014117 0.013234 0.012352 0.022557 0.021532 0.020506 0.019481 0.018456 0.01743 0.016405 0.01538 0.014355 0.025385 0.024231 0.023078 0.021924 0.02077 0.019616 0.018462 0.017308 0.016154 0.027874 0.026607 0.02534 0.024073 0.022806 0.021539 0.020272 0.019005 0.017738 0.029999 0.028636 0.027272 0.025909 0.024545 0.023181 0.021818 0.020454 0.019091 0.03173 0.030287 0.028845 0.027403 0.025961 0.024518 0.023076 0.021634 0.020192 0.033042 0.03154 0.030038 0.028536 0.027034 0.025533 0.024031 0.022529 0.021027 0.033892 0.032351 0.030811 0.02927 0.02773 0.026189 0.024649 0.023108 0.021567 0.034232 0.032676 0.03112 0.029564 0.028008 0.026452 0.024896 0.02334 0.021784 0.034045 0.032498 0.03095 0.029403 0.027855 0.026308 0.02476 0.023213 0.021665 0.033339 0.031824 0.030309 0.028793 0.027278 0.025762 0.024247 0.022731 0.021216 0.032105 0.030646 0.029186 0.027727 0.026268 0.024809 0.023349 0.02189 0.020431 0.030353 0.028974 0.027594 0.026214 0.024835 0.023455 0.022075 0.020695 0.019316 0.02812 0.026842 0.025564 0.024285 0.023007 0.021729 0.020451 0.019173 0.017895 0.025433 0.024277 0.023121 0.021965 0.020809 0.019653 0.018497 0.017341 0.016184 0.022319 0.021305 0.02029 0.019276 0.018261 0.017247 0.016232 0.015218 0.014203 0.018824 0.017969 0.017113 0.016257 0.015402 0.014546 0.01369 0.012835 0.011979 0.015008 0.014325 0.013643 0.012961 0.012279 0.011597 0.010915 0.010232 0.00955 0.010925 0.010429 0.009932 0.009435 0.008939 0.008442 0.007946 0.007449 0.006952 0.006635 0.006333 0.006032 0.00573 0.005429 0.005127 0.004825 0.004524 0.004222 0.002461 0.002349 0.002237 0.002125 0.002013 0.001901 0.00179 0.001678 0.001566 
</DataArray>
</CellData>
</Piece>
</UnstructuredGrid>
</VTKFile>
